
Running Job 1 of 1 benzene_frequencies.qcin
qchem benzene_frequencies.qcin_1373491.0 ./qchem1373491/ 0
/cm/shared/apps/spack/cpu/opt/spack/linux-centos8-zen2/gcc-10.2.0/qchem-6.0.2/exe/qcprog.exe_s benzene_frequencies.qcin_1373491.0 ./qchem1373491/
                  Welcome to Q-Chem
     A Quantum Leap Into The Future Of Chemistry


 Q-Chem 6.0, Q-Chem, Inc., Pleasanton, CA (2022)

 License issued to: University of California, San Diego (site)

 E. Epifanovsky,  A. T. B. Gilbert,  Xintian Feng,  Joonho Lee,  Yuezhi Mao,  
 N. Mardirossian,  P. Pokhilko,  A. White,  M. Wormit,  M. P. Coons,  
 A. L. Dempwolff,  Zhengting Gan,  D. Hait,  P. R. Horn,  L. D. Jacobson,  
 I. Kaliman,  J. Kussmann,  A. W. Lange,  Ka Un Lao,  D. S. Levine,  Jie Liu,  
 S. C. McKenzie,  A. F. Morrison,  K. Nanda,  F. Plasser,  D. R. Rehn,  
 M. L. Vidal,  Zhi-Qiang You,  Ying Zhu,  B. Alam,  B. Albrecht,  
 A. Aldossary,  E. Alguire,  J. H. Andersen,  V. Athavale,  D. Barton,  
 K. Begam,  A. Behn,  N. Bellonzi,  Y. A. Bernard,  E. J. Berquist,  
 H. Burton,  A. Carreras,  K. Carter-Fenk,  Romit Chakraborty,  
 Chandrima Chakravarty,  Junhan Chen,  A. D. Chien,  K. D. Closser,  
 V. Cofer-Shabica,  L. Cunha,  S. Dasgupta,  Jia Deng,  M. de Wergifosse,  
 M. Diedenhofen,  Hainam Do,  S. Ehlert,  Po-Tung Fang,  S. Fatehi,  
 Qingguo Feng,  T. Friedhoff,  B. Ganoe,  J. Gayvert,  Qinghui Ge,  
 G. Gidofalvi,  M. Goldey,  J. Gomes,  C. Gonzalez-Espinoza,  S. Gulania,  
 A. Gunina,  J. A. Gyamfi,  M. W. D. Hanson-Heine,  P. H. P. Harbach,  
 A. W. Hauser,  M. F. Herbst,  M. Hernandez Vera,  M. Hodecker,  
 Z. C. Holden,  S. Houck,  Xunkun Huang,  Kerwin Hui,  B. C. Huynh,  
 K. Ikeda,  M. Ivanov,  Hyunjun Ji,  Zuxin Jin,  Hanjie Jiang,  B. Kaduk,  
 S. Kaehler,  R. Kang,  K. Khistyaev,  Jaehoon Kim,  Yongbin Kim,  
 P. Klunzinger,  Z. Koczor-Benda,  Joong Hoon Koh,  D. Kosenkov,  
 Saikiran Kotaru,  L. Koulias,  T. Kowalczyk,  C. M. Krauter,  K. Kue,  
 A. Kunitsa,  T. Kus,  A. Landau,  K. V. Lawler,  D. Lefrancois,  S. Lehtola,  
 Rain Li,  Shaozhi Li,  Yi-Pei Li,  Jiashu Liang,  M. Liebenthal,  
 Hung-Hsuan Lin,  You-Sheng Lin,  Fenglai Liu,  Kuan-Yu Liu,  
 M. Loipersberger,  A. Luenser,  C. Malbon,  A. Manjanath,  P. Manohar,  
 E. Mansoor,  S. F. Manzer,  Shan-Ping Mao,  A. V. Marenich,  T. Markovich,  
 S. Mason,  F. Matz,  S. A. Maurer,  P. F. McLaughlin,  M. F. S. J. Menger,  
 J.-M. Mewes,  S. A. Mewes,  P. Morgante,  Mohammad Mostafanejad,  
 J. W. Mullinax,  K. J. Oosterbaan,  G. Paran,  V. Parravicini,  
 Alexander C. Paul,  Suranjan K. Paul,  F. Pavosevic,  Zheng Pei,  S. Prager,  
 E. I. Proynov,  E. Ramos,  B. Rana,  A. E. Rask,  A. Rettig,  R. M. Richard,  
 F. Rob,  E. Rossomme,  T. Scheele,  M. Scheurer,  M. Schneider,  
 P. E. Schneider,  N. Sergueev,  S. M. Sharada,  Hengyuan Shen,  
 W. Skomorowski,  D. W. Small,  C. J. Stein,  Yingli Su,  Yu-Chuan Su,  
 E. J. Sundstrom,  Zhen Tao,  J. Thirman,  Hung-Yi Tsai,  T. Tsuchimochi,  
 N. M. Tubman,  C. Utku,  S. P. Veccham,  O. Vydrov,  J. Wenzel,  
 Jonathan Wong,  J. Witte,  A. Yamada,  Chou-Hsun Yang,  Kun Yao,  
 S. Yeganeh,  S. R. Yost,  A. Zech,  F. Zeller,  Igor Ying Zhang,  
 Xing Zhang,  Yu Zhang,  D. Zuev,  A. Aspuru-Guzik,  A. T. Bell,  
 N. A. Besley,  K. B. Bravaya,  B. R. Brooks,  D. Casanova,  Jeng-Da Chai,  
 Hsing-Ta Chen,  S. Coriani,  C. J. Cramer,  A. E. DePrince, III,  
 R. A. DiStasio Jr.,  A. Dreuw,  B. D. Dunietz,  T. R. Furlani,  
 W. A. Goddard III,  S. Grimme,  S. Hammes-Schiffer,  T. Head-Gordon,  
 W. J. Hehre,  Chao-Ping Hsu,  T.-C. Jagau,  Yousung Jung,  A. Klamt,  
 Jing Kong,  D. S. Lambrecht,  Xiangyuan Li,  WanZhen Liang,  N. J. Mayhall,  
 C. W. McCurdy,  J. B. Neaton,  T. Neudecker,  C. Ochsenfeld,  
 J. A. Parkhill,  R. Peverati,  V. A. Rassolov,  Haisheng Ren,  Yihan Shao,  
 L. V. Slipchenko,  R. P. Steele,  J. E. Subotnik,  A. J. W. Thom,  
 A. Tkatchenko,  D. G. Truhlar,  T. Van Voorhis,  Fan Wang,  
 T. A. Wesolowski,  K. B. Whaley,  H. L. Woodcock III,  P. M. Zimmerman,  
 S. Faraji,  P. M. W. Gill,  M. Head-Gordon,  J. M. Herbert,  A. I. Krylov

 Contributors to earlier versions of Q-Chem not listed above: 
 R. D. Adamson,  B. Austin,  R. Baer,  J. Baker,  G. J. O. Beran,  
 K. Brandhorst,  S. T. Brown,  E. F. C. Byrd,  Arup K. Chakraborty,  
 G. K. L. Chan,  Chun-Min Chang,  Yunqing Chen,  C.-L. Cheng,  
 Siu Hung Chien,  D. M. Chipman,  D. L. Crittenden,  H. Dachsel,  
 R. J. Doerksen,  A. D. Dutoi,  R. G. Edgar,  J. Fosso-Tande,  
 L. Fusti-Molnar,  D. Ghosh,  A. Ghysels,  A. Golubeva-Zadorozhnaya,  
 J. Gonthier,  M. S. Gordon,  S. R. Gwaltney,  G. Hawkins,  J. E. Herr,  
 A. Heyden,  S. Hirata,  E. G. Hohenstein,  G. Kedziora,  F. J. Keil,  
 C. Kelley,  Jihan Kim,  R. A. King,  R. Z. Khaliullin,  P. P. Korambath,  
 W. Kurlancheek,  A. Laurent,  A. M. Lee,  M. S. Lee,  S. V. Levchenko,  
 Ching Yeh Lin,  D. Liotard,  E. Livshits,  R. C. Lochan,  I. Lotan,  
 L. A. Martinez-Martinez,  P. E. Maslen,  N. Nair,  D. P. O'Neill,  
 D. Neuhauser,  E. Neuscamman,  C. M. Oana,  R. Olivares-Amaya,  R. Olson,  
 T. M. Perrine,  B. Peters,  P. A. Pieniazek,  A. Prociuk,  Y. M. Rhee,  
 J. Ritchie,  M. A. Rohrdanz,  E. Rosta,  N. J. Russ,  H. F. Schaefer III,  
 M. W. Schmidt,  N. E. Schultz,  S. Sharma,  N. Shenvi,  C. D. Sherrill,  
 A. C. Simmonett,  A. Sodt,  T. Stein,  D. Stuck,  K. S. Thanthiriwatte,  
 V. Vanovschi,  L. Vogt,  Tao Wang,  A. Warshel,  M. A. Watson,  
 C. F. Williams,  Q. Wu,  X. Xu,  Jun Yang,  W. Zhang,  Yan Zhao

   Please cite Q-Chem as follows:
  "Software for the frontiers of quantum chemistry:
   An overview of developments in the Q-Chem 5 package"
   J. Chem. Phys. 155, 084801 (2021)
   https://doi.org/10.1063/5.0055522 (open access)

 Q-Chem 6.0.2 for Intel X86 EM64T Linux

 Parts of Q-Chem use Armadillo 9.900.5 (Nocturnal Misbehaviour).
 http://arma.sourceforge.net/

 Q-Chem begins on Thu Oct 12 20:14:57 2023  

 Host: 
0

     Scratch files written to ./qchem1373491//
 Dec722 |scratch|qcdevops|jenkins|workspace|build_RNUM -1
 Processing $rem in /cm/shared/apps/spack/cpu/opt/spack/linux-centos8-zen2/gcc-10.2.0/qchem-6.0.2/config/preferences:
 Processing $rem in /home/whe1/.qchemrc:

 Checking the input file for inconsistencies... 	...done.

--------------------------------------------------------------
User input:
--------------------------------------------------------------
$rem
JOBTYPE Freq
EXCHANGE HF
BASIS cc-pVTZ
GUI=2
$end

$molecule
0 1
C 0.5625564505 -1.2630382788 -0.0000000000
C -0.8125449922 -1.1187073105 -0.0000000000
C 1.3751014434 -0.1443309749 0.0000000000
C 0.8125449922 1.1187073105 -0.0000000000
C -0.5625564505 1.2630382788 -0.0000000000
C -1.3751014434 0.1443309749 -0.0000000000
H 0.9992934054 -2.2435900151 0.0000000000
H -1.4433589500 -1.9872086629 -0.0000000000
H 2.4426526484 -0.2563813992 0.0000000000
H 1.4433589500 1.9872086629 0.0000000000
H -0.9992934054 2.2435900151 0.0000000000
H -2.4426526484 0.2563813992 -0.0000000000
$end
--------------------------------------------------------------
 ----------------------------------------------------------------
             Standard Nuclear Orientation (Angstroms)
    I     Atom           X                Y                Z
 ----------------------------------------------------------------
    1      C       1.3225847298    -0.4031191961     0.0000000000
    2      C       1.0104038256     0.9438323580    -0.0000000000
    3      C       0.3121809108    -1.3469515540     0.0000000000
    4      C      -1.0104038256    -0.9438323580     0.0000000000
    5      C      -1.3225847298     0.4031191961    -0.0000000000
    6      C      -0.3121809108     1.3469515540    -0.0000000000
    7      H       2.3493649540    -0.7160780537    -0.0000000000
    8      H       1.7948244780     1.6765704344    -0.0000000000
    9      H       0.5545405586    -2.3926487731     0.0000000000
   10      H      -1.7948244780    -1.6765704344     0.0000000000
   11      H      -2.3493649540     0.7160780537     0.0000000000
   12      H      -0.5545405586     2.3926487731    -0.0000000000
 ----------------------------------------------------------------
 Molecular Point Group                 C2h   NOp =  4
 Largest Abelian Subgroup              C2h   NOp =  4
 Nuclear Repulsion Energy =         205.31697433 hartrees
 There are       21 alpha and       21 beta electrons
 Requested basis set is cc-pVTZ
 There are 96 shells and 264 basis functions

 Total QAlloc Memory Limit   2048 MB
 Mega-Array Size       188 MB
 MEM_STATIC part       192 MB


                       Distance Matrix (Angstroms)
             C (  1)   C (  2)   C (  3)   C (  4)   C (  5)   C (  6)
   C (  2)  1.382655
   C (  3)  1.382655  2.394829
   C (  4)  2.394829  2.765310  1.382655
   C (  5)  2.765310  2.394829  2.394829  1.382655
   C (  6)  2.394829  1.382655  2.765310  2.394829  1.382655
   H (  7)  1.073416  2.132632  2.132632  3.367480  3.838726  3.367479
   H (  8)  2.132632  1.073416  3.367479  3.838726  3.367480  2.132632
   H (  9)  2.132632  3.367479  1.073416  2.132632  3.367479  3.838726
   H ( 10)  3.367480  3.838726  2.132632  1.073416  2.132632  3.367479
   H ( 11)  3.838726  3.367480  3.367479  2.132632  1.073416  2.132632
   H ( 12)  3.367479  2.132632  3.838726  3.367479  2.132632  1.073416
             H (  7)   H (  8)   H (  9)   H ( 10)   H ( 11)
   H (  8)  2.456070
   H (  9)  2.456071  4.254039
   H ( 10)  4.254039  4.912141  2.456071
   H ( 11)  4.912141  4.254039  4.254039  2.456070
   H ( 12)  4.254039  2.456071  4.912141  4.254039  2.456071
 
 A cutoff of  1.0D-12 yielded   4476 shell pairs
 There are     34176 function pairs (     44349 Cartesian)
 Smallest overlap matrix eigenvalue = 3.53E-05
 Guess from superposition of atomic densities
 Warning:  Energy on first SCF cycle will be non-variational
 SAD guess density has 42.000000 electrons

 -----------------------------------------------------------------------
  General SCF calculation program by
  Eric Jon Sundstrom, Paul Horn, Yuezhi Mao, Dmitri Zuev, Alec White,
  David Stuck, Shaama M.S., Shane Yost, Joonho Lee, David Small,
  Daniel Levine, Susi Lehtola, Hugh Burton, Evgeny Epifanovsky,
  Bang C. Huynh
 -----------------------------------------------------------------------
 Hartree-Fock
 A restricted SCF calculation will be
 performed using DIIS
 SCF converges when DIIS error is below 1.0e-08
 ---------------------------------------
  Cycle       Energy         DIIS error
 ---------------------------------------
    1    -233.4185449883      3.50e-02  
    2    -230.7150304054      2.28e-03  
    3    -230.7749449489      6.58e-04  
    4    -230.7797377188      2.90e-04  
    5    -230.7805024645      2.04e-05  
    6    -230.7805104244      3.14e-06  
    7    -230.7805106354      8.29e-07  
    8    -230.7805106503      1.27e-07  
    9    -230.7805106506      1.47e-08  
   10    -230.7805106511      2.06e-09  Convergence criterion met
 ---------------------------------------
 SCF time:   CPU 45.36s  wall 45.00s 
 SCF   energy in the final basis set =     -230.7805106511
 Total energy in the final basis set =     -230.7805106511
 
 --------------------------------------------------------------
             Orbital Energies (a.u.) and Symmetries
 --------------------------------------------------------------
 
 Alpha MOs, Restricted
 -- Occupied --                  
-11.229 -11.228 -11.228 -11.227 -11.227 -11.227  -1.155  -1.017
  1 Ag    1 Bu    2 Bu    2 Ag    3 Ag    3 Bu    4 Ag    4 Bu                 
 -1.017  -0.825  -0.825  -0.713  -0.643  -0.621  -0.589  -0.589
  5 Bu    5 Ag    6 Ag    7 Ag    6 Bu    7 Bu    8 Bu    9 Bu                 
 -0.505  -0.494  -0.494  -0.337  -0.337
  1 Au    8 Ag    9 Ag    1 Bg    2 Bg                                         
 -- Virtual --                   
  0.132   0.132   0.147   0.170   0.170   0.202   0.202   0.223
  2 Au    3 Au   10 Ag   10 Bu   11 Bu   11 Ag   12 Ag   12 Bu                 
  0.336   0.362   0.362   0.394   0.417   0.423   0.423   0.430
  3 Bg   13 Ag   14 Ag   13 Bu   15 Ag   14 Bu   15 Bu    4 Au                 
  0.473   0.473   0.512   0.520   0.520   0.559   0.574   0.574
  4 Bg    5 Bg   16 Ag   16 Bu   17 Bu   18 Bu    5 Au    6 Au                 
  0.595   0.595   0.597   0.597   0.625   0.644   0.644   0.644
 17 Ag   18 Ag   19 Bu   20 Bu    7 Au   19 Ag   20 Ag   21 Ag                 
  0.647   0.671   0.706   0.732   0.732   0.754   0.754   0.848
 22 Ag    6 Bg   21 Bu   23 Ag   24 Ag   22 Bu   23 Bu    7 Bg                 
  0.864   0.864   0.913   0.913   0.965   0.965   0.965   1.014
  8 Bg    9 Bg   24 Bu   25 Bu    8 Au    9 Au   25 Ag   26 Bu                 
  1.018   1.036   1.036   1.083   1.126   1.136   1.220   1.224
 26 Ag   27 Ag   28 Ag   27 Bu   10 Au   28 Bu   10 Bg   11 Au                 
  1.224   1.232   1.232   1.302   1.302   1.317   1.318   1.318
 12 Au   29 Ag   30 Ag   11 Bg   12 Bg   31 Ag   29 Bu   30 Bu                 
  1.382   1.382   1.490   1.503   1.519   1.519   1.519   1.519
 31 Bu   32 Bu   33 Bu   32 Ag   13 Bg   14 Bg   33 Ag   34 Ag                 
  1.523   1.523   1.601   1.601   1.606   1.606   1.606   1.606
 34 Bu   35 Bu   13 Au   14 Au   35 Ag   36 Ag   36 Bu   37 Bu                 
  1.635   1.745   1.745   1.755   1.773   1.819   1.897   2.099
 38 Bu   37 Ag   38 Ag   39 Ag   15 Bg   15 Au   39 Bu   40 Ag                 
  2.194   2.194   2.236   2.305   2.305   2.335   2.336   2.446
 41 Ag   42 Ag   40 Bu   41 Bu   42 Bu   43 Ag   16 Au   16 Bg                 
  2.446   2.470   2.493   2.493   2.546   2.546   2.610   2.662
 17 Bg   43 Bu   44 Bu   45 Bu   17 Au   18 Au   18 Bg   44 Ag                 
  2.747   2.747   2.776   2.776   2.808   2.861   2.925   2.925
 45 Ag   46 Ag   46 Bu   47 Bu   19 Au   19 Bg   47 Ag   48 Ag                 
  2.943   2.956   2.956   2.988   3.017   3.017   3.031   3.031
 48 Bu   20 Au   21 Au   22 Au   20 Bg   21 Bg   49 Bu   50 Bu                 
  3.067   3.067   3.080   3.114   3.176   3.176   3.226   3.226
 22 Bg   23 Bg   49 Ag   51 Bu   50 Ag   51 Ag   24 Bg   25 Bg                 
  3.234   3.309   3.309   3.335   3.335   3.348   3.387   3.387
 23 Au   52 Ag   53 Ag   52 Bu   53 Bu   54 Ag   54 Bu   55 Bu                 
  3.389   3.389   3.411   3.429   3.429   3.438   3.438   3.443
 24 Au   25 Au   56 Bu   55 Ag   56 Ag   26 Au   27 Au   57 Ag                 
  3.457   3.458   3.510   3.618   3.620   3.620   3.672   3.681
 26 Bg   57 Bu   58 Ag   27 Bg   28 Au   29 Au   30 Au   58 Bu                 
  3.681   3.695   3.695   3.719   3.719   3.724   3.724   3.796
 59 Bu   59 Ag   60 Ag   28 Bg   29 Bg   60 Bu   61 Bu   62 Bu                 
  3.924   3.924   3.930   3.944   4.079   4.079   4.121   4.125
 61 Ag   62 Ag   30 Bg   31 Bg   31 Au   63 Ag   32 Au   63 Bu                 
  4.125   4.131   4.131   4.152   4.163   4.164   4.164   4.187
 64 Bu   32 Bg   33 Bg   65 Bu   64 Ag   65 Ag   66 Ag   33 Au                 
  4.187   4.212   4.219   4.219   4.354   4.354   4.399   4.430
 34 Au   66 Bu   34 Bg   35 Bg   67 Bu   68 Bu   69 Bu   67 Ag                 
  4.451   4.451   4.489   4.489   4.513   4.519   4.535   4.550
 35 Au   36 Au   68 Ag   69 Ag   70 Bu   70 Ag   36 Bg   71 Ag                 
  4.550   4.612   4.687   4.687   4.704   4.704   4.707   4.707
 72 Ag   71 Bu   37 Bg   38 Bg   73 Ag   74 Ag   72 Bu   73 Bu                 
  4.708   4.708   4.910   4.944   4.944   5.017   5.092   5.092
 37 Au   38 Au   75 Ag   76 Ag   77 Ag   39 Au   74 Bu   75 Bu                 
  5.100   5.144   5.144   5.156   5.156   5.217   5.311   5.356
 39 Bg   76 Bu   77 Bu   40 Bg   41 Bg   40 Au   78 Bu   78 Ag                 
  5.414   5.414   5.420   5.428   5.459   5.459   5.572   5.572
 41 Au   42 Au   79 Ag   79 Bu   80 Ag   81 Ag   80 Bu   81 Bu                 
  5.773   5.773   5.873   6.137   6.137   6.147   6.316   6.316
 82 Bu   83 Bu   42 Bg   82 Ag   83 Ag   84 Bu   84 Ag   85 Ag                 
  6.423   6.588   6.588   6.921   7.421   9.572  13.367  13.367
 86 Ag   85 Bu   86 Bu   87 Bu   87 Ag   88 Ag   88 Bu   89 Bu                 
 13.873  13.873  16.575
 89 Ag   90 Ag   90 Bu                                                         
 
 Beta MOs, Restricted
 -- Occupied --                  
-11.229 -11.228 -11.228 -11.227 -11.227 -11.227  -1.155  -1.017
  1 Ag    1 Bu    2 Bu    2 Ag    3 Ag    3 Bu    4 Ag    4 Bu                 
 -1.017  -0.825  -0.825  -0.713  -0.643  -0.621  -0.589  -0.589
  5 Bu    5 Ag    6 Ag    7 Ag    6 Bu    7 Bu    8 Bu    9 Bu                 
 -0.505  -0.494  -0.494  -0.337  -0.337
  1 Au    8 Ag    9 Ag    1 Bg    2 Bg                                         
 -- Virtual --                   
  0.132   0.132   0.147   0.170   0.170   0.202   0.202   0.223
  2 Au    3 Au   10 Ag   10 Bu   11 Bu   11 Ag   12 Ag   12 Bu                 
  0.336   0.362   0.362   0.394   0.417   0.423   0.423   0.430
  3 Bg   13 Ag   14 Ag   13 Bu   15 Ag   14 Bu   15 Bu    4 Au                 
  0.473   0.473   0.512   0.520   0.520   0.559   0.574   0.574
  4 Bg    5 Bg   16 Ag   16 Bu   17 Bu   18 Bu    5 Au    6 Au                 
  0.595   0.595   0.597   0.597   0.625   0.644   0.644   0.644
 17 Ag   18 Ag   19 Bu   20 Bu    7 Au   19 Ag   20 Ag   21 Ag                 
  0.647   0.671   0.706   0.732   0.732   0.754   0.754   0.848
 22 Ag    6 Bg   21 Bu   23 Ag   24 Ag   22 Bu   23 Bu    7 Bg                 
  0.864   0.864   0.913   0.913   0.965   0.965   0.965   1.014
  8 Bg    9 Bg   24 Bu   25 Bu    8 Au    9 Au   25 Ag   26 Bu                 
  1.018   1.036   1.036   1.083   1.126   1.136   1.220   1.224
 26 Ag   27 Ag   28 Ag   27 Bu   10 Au   28 Bu   10 Bg   11 Au                 
  1.224   1.232   1.232   1.302   1.302   1.317   1.318   1.318
 12 Au   29 Ag   30 Ag   11 Bg   12 Bg   31 Ag   29 Bu   30 Bu                 
  1.382   1.382   1.490   1.503   1.519   1.519   1.519   1.519
 31 Bu   32 Bu   33 Bu   32 Ag   13 Bg   14 Bg   33 Ag   34 Ag                 
  1.523   1.523   1.601   1.601   1.606   1.606   1.606   1.606
 34 Bu   35 Bu   13 Au   14 Au   35 Ag   36 Ag   36 Bu   37 Bu                 
  1.635   1.745   1.745   1.755   1.773   1.819   1.897   2.099
 38 Bu   37 Ag   38 Ag   39 Ag   15 Bg   15 Au   39 Bu   40 Ag                 
  2.194   2.194   2.236   2.305   2.305   2.335   2.336   2.446
 41 Ag   42 Ag   40 Bu   41 Bu   42 Bu   43 Ag   16 Au   16 Bg                 
  2.446   2.470   2.493   2.493   2.546   2.546   2.610   2.662
 17 Bg   43 Bu   44 Bu   45 Bu   17 Au   18 Au   18 Bg   44 Ag                 
  2.747   2.747   2.776   2.776   2.808   2.861   2.925   2.925
 45 Ag   46 Ag   46 Bu   47 Bu   19 Au   19 Bg   47 Ag   48 Ag                 
  2.943   2.956   2.956   2.988   3.017   3.017   3.031   3.031
 48 Bu   20 Au   21 Au   22 Au   20 Bg   21 Bg   49 Bu   50 Bu                 
  3.067   3.067   3.080   3.114   3.176   3.176   3.226   3.226
 22 Bg   23 Bg   49 Ag   51 Bu   50 Ag   51 Ag   24 Bg   25 Bg                 
  3.234   3.309   3.309   3.335   3.335   3.348   3.387   3.387
 23 Au   52 Ag   53 Ag   52 Bu   53 Bu   54 Ag   54 Bu   55 Bu                 
  3.389   3.389   3.411   3.429   3.429   3.438   3.438   3.443
 24 Au   25 Au   56 Bu   55 Ag   56 Ag   26 Au   27 Au   57 Ag                 
  3.457   3.458   3.510   3.618   3.620   3.620   3.672   3.681
 26 Bg   57 Bu   58 Ag   27 Bg   28 Au   29 Au   30 Au   58 Bu                 
  3.681   3.695   3.695   3.719   3.719   3.724   3.724   3.796
 59 Bu   59 Ag   60 Ag   28 Bg   29 Bg   60 Bu   61 Bu   62 Bu                 
  3.924   3.924   3.930   3.944   4.079   4.079   4.121   4.125
 61 Ag   62 Ag   30 Bg   31 Bg   31 Au   63 Ag   32 Au   63 Bu                 
  4.125   4.131   4.131   4.152   4.163   4.164   4.164   4.187
 64 Bu   32 Bg   33 Bg   65 Bu   64 Ag   65 Ag   66 Ag   33 Au                 
  4.187   4.212   4.219   4.219   4.354   4.354   4.399   4.430
 34 Au   66 Bu   34 Bg   35 Bg   67 Bu   68 Bu   69 Bu   67 Ag                 
  4.451   4.451   4.489   4.489   4.513   4.519   4.535   4.550
 35 Au   36 Au   68 Ag   69 Ag   70 Bu   70 Ag   36 Bg   71 Ag                 
  4.550   4.612   4.687   4.687   4.704   4.704   4.707   4.707
 72 Ag   71 Bu   37 Bg   38 Bg   73 Ag   74 Ag   72 Bu   73 Bu                 
  4.708   4.708   4.910   4.944   4.944   5.017   5.092   5.092
 37 Au   38 Au   75 Ag   76 Ag   77 Ag   39 Au   74 Bu   75 Bu                 
  5.100   5.144   5.144   5.156   5.156   5.217   5.311   5.356
 39 Bg   76 Bu   77 Bu   40 Bg   41 Bg   40 Au   78 Bu   78 Ag                 
  5.414   5.414   5.420   5.428   5.459   5.459   5.572   5.572
 41 Au   42 Au   79 Ag   79 Bu   80 Ag   81 Ag   80 Bu   81 Bu                 
  5.773   5.773   5.873   6.137   6.137   6.147   6.316   6.316
 82 Bu   83 Bu   42 Bg   82 Ag   83 Ag   84 Bu   84 Ag   85 Ag                 
  6.423   6.588   6.588   6.921   7.421   9.572  13.367  13.367
 86 Ag   85 Bu   86 Bu   87 Bu   87 Ag   88 Ag   88 Bu   89 Bu                 
 13.873  13.873  16.575
 89 Ag   90 Ag   90 Bu                                                         
 --------------------------------------------------------------
 
          Ground-State Mulliken Net Atomic Charges

     Atom                 Charge (a.u.)
  ----------------------------------------
      1 C                    -0.152675
      2 C                    -0.152675
      3 C                    -0.152675
      4 C                    -0.152675
      5 C                    -0.152675
      6 C                    -0.152675
      7 H                     0.152675
      8 H                     0.152675
      9 H                     0.152675
     10 H                     0.152675
     11 H                     0.152675
     12 H                     0.152675
  ----------------------------------------
  Sum of atomic charges =     0.000000

 -----------------------------------------------------------------
                    Cartesian Multipole Moments
 -----------------------------------------------------------------
    Charge (ESU x 10^10)
                -0.0000
    Dipole Moment (Debye)
         X       0.0000      Y      -0.0000      Z      -0.0000
       Tot       0.0000
    Quadrupole Moments (Debye-Ang)
        XX     -31.7993     XY       0.0000     YY     -31.7993
        XZ      -0.0000     YZ       0.0000     ZZ     -40.3665
    Octopole Moments (Debye-Ang^2)
       XXX       0.0000    XXY      -0.0000    XYY       0.0000
       YYY       0.0000    XXZ      -0.0000    XYZ       0.0000
       YYZ       0.0000    XZZ      -0.0000    YZZ      -0.0000
       ZZZ      -0.0000
    Hexadecapole Moments (Debye-Ang^3)
      XXXX    -265.7802   XXXY       0.0000   XXYY     -88.5934
      XYYY      -0.0000   YYYY    -265.7802   XXXZ       0.0000
      XXYZ       0.0000   XYYZ       0.0000   YYYZ       0.0000
      XXZZ     -63.0023   XYZZ       0.0000   YYZZ     -63.0023
      XZZZ      -0.0000   YZZZ       0.0000   ZZZZ     -48.0185
 -----------------------------------------------------------------
 Calculating MO derivatives via CPSCF
    1     0    39    0.0390403  
    2     0    39    0.0068176  
    3     0    39    0.0016183  
    4     0    39    0.0003461  
    5     0    39    0.0000402  
    6    25    14    0.0000043  
    7    39     0    0.0000004  Converged
 Polarizability Matrix (a.u.)
            1           2           3
    1 -73.6924716  -0.0000002   0.0000000
    2  -0.0000002 -73.6924685   0.0000000
    3   0.0000000   0.0000000 -34.0649829
 Calculating analytic Hessian of the SCF energy
 
 Direct stationary perturbation theory relativistic correction:
 
 rels  =       0.058173290342
 relv  =      -0.254063540008
 rel2e =       0.100086152597
 E_rel =      -0.095804097068
 
 **********************************************************************
 **                                                                  **
 **                       VIBRATIONAL ANALYSIS                       **
 **                       --------------------                       **
 **                                                                  **
 **        VIBRATIONAL FREQUENCIES (CM**-1) AND NORMAL MODES         **
 **     FORCE CONSTANTS (mDYN/ANGSTROM) AND REDUCED MASSES (AMU)     **
 **                  INFRARED INTENSITIES (KM/MOL)                   **
 **                                                                  **
 **********************************************************************
 

 Mode:                 1                      2                      3
 Frequency:       451.63                 451.65                 662.95
 Force Cnst:      0.3445                 0.3445                 1.5720
 Red. Mass:       2.8666                 2.8667                 6.0706
 IR Active:          YES                    YES                    NO 
 IR Intens:        0.000                  0.000                  0.000
 Raman Active:       NO                     NO                     YES
               X      Y      Z        X      Y      Z        X      Y      Z
 C          0.000 -0.000 -0.189    0.000 -0.000 -0.143    0.336 -0.121  0.000
 C         -0.000 -0.000 -0.029    0.000 -0.000  0.236   -0.071 -0.238 -0.000
 C         -0.000 -0.000  0.219   -0.000  0.000 -0.092    0.107  0.171  0.000
 C          0.000  0.000 -0.029    0.000  0.000  0.236    0.071  0.238 -0.000
 C         -0.000  0.000 -0.189   -0.000  0.000 -0.143   -0.336  0.121  0.000
 C         -0.000  0.000  0.219   -0.000 -0.000 -0.092   -0.107 -0.171 -0.000
 H          0.000 -0.000 -0.420    0.000 -0.000 -0.317    0.349 -0.079  0.000
 H         -0.000 -0.000 -0.065    0.000  0.000  0.522   -0.280 -0.014  0.000
 H         -0.000 -0.000  0.485   -0.000  0.000 -0.205   -0.234  0.092  0.000
 H          0.000  0.000 -0.065    0.000 -0.000  0.522    0.280  0.014  0.000
 H         -0.000 -0.000 -0.420   -0.000 -0.000 -0.317   -0.349  0.079  0.000
 H          0.000  0.000  0.485    0.000 -0.000 -0.205    0.234 -0.092  0.000
 TransDip  -0.000 -0.000  0.000   -0.000 -0.000 -0.000   -0.000 -0.000  0.000

 Mode:                 4                      5                      6
 Frequency:       662.96                 758.78                 775.97
 Force Cnst:      1.5720                 0.3680                 1.1651
 Red. Mass:       6.0706                 1.0848                 3.2842
 IR Active:          NO                     YES                    NO 
 IR Intens:        0.000                128.015                  0.000
 Raman Active:       YES                    NO                     YES
               X      Y      Z        X      Y      Z        X      Y      Z
 C         -0.085 -0.136  0.000   -0.000  0.000 -0.034   -0.000  0.000 -0.186
 C         -0.274 -0.129  0.000   -0.000  0.000 -0.034   -0.000 -0.000  0.186
 C          0.135 -0.307 -0.000   -0.000 -0.000 -0.034   -0.000  0.000  0.186
 C          0.274  0.129 -0.000   -0.000 -0.000 -0.034   -0.000 -0.000 -0.186
 C          0.085  0.136  0.000    0.000 -0.000 -0.034    0.000 -0.000  0.186
 C         -0.135  0.307 -0.000    0.000  0.000 -0.034    0.000  0.000 -0.186
 H          0.026  0.226  0.000   -0.000  0.000  0.407   -0.000  0.000 -0.364
 H         -0.119 -0.295  0.000   -0.000  0.000  0.407    0.000 -0.000  0.364
 H         -0.013 -0.341 -0.000   -0.000 -0.000  0.407    0.000  0.000  0.364
 H          0.119  0.295  0.000   -0.000  0.000  0.407   -0.000 -0.000 -0.364
 H         -0.026 -0.226 -0.000    0.000  0.000  0.407    0.000  0.000  0.364
 H          0.013  0.341 -0.000    0.000  0.000  0.407    0.000  0.000 -0.364
 TransDip   0.000  0.000 -0.000   -0.000  0.000  0.362    0.000  0.000  0.000

 Mode:                 7                      8                      9
 Frequency:       956.08                 956.08                1072.67
 Force Cnst:      0.6717                 0.6717                 4.0677
 Red. Mass:       1.2472                 1.2472                 6.0001
 IR Active:          NO                     NO                     NO 
 IR Intens:        0.000                  0.000                  0.000
 Raman Active:       YES                    YES                    YES
               X      Y      Z        X      Y      Z        X      Y      Z
 C         -0.000 -0.000 -0.059    0.000 -0.000 -0.062   -0.263  0.080  0.000
 C          0.000  0.000  0.024   -0.000 -0.000 -0.082   -0.201 -0.188 -0.000
 C         -0.000  0.000 -0.083   -0.000  0.000  0.020   -0.062  0.268  0.000
 C          0.000  0.000 -0.024   -0.000  0.000  0.082    0.201  0.188 -0.000
 C          0.000 -0.000  0.059    0.000 -0.000  0.062    0.263 -0.080 -0.000
 C          0.000 -0.000  0.083    0.000 -0.000 -0.020    0.062 -0.268  0.000
 H         -0.000 -0.000  0.395   -0.000 -0.000  0.413   -0.289  0.088  0.000
 H          0.000 -0.000 -0.160   -0.000  0.000  0.548   -0.220 -0.206  0.000
 H         -0.000  0.000  0.555   -0.000  0.000 -0.136   -0.068  0.294 -0.000
 H          0.000 -0.000  0.160    0.000 -0.000 -0.548    0.220  0.206  0.000
 H         -0.000 -0.000 -0.395    0.000 -0.000 -0.413    0.289 -0.088  0.000
 H         -0.000 -0.000 -0.555    0.000  0.000  0.136    0.068 -0.294 -0.000
 TransDip  -0.000 -0.000 -0.000   -0.000 -0.000  0.000   -0.000  0.000  0.000

 Mode:                10                     11                     12
 Frequency:      1095.42                1100.23                1100.23
 Force Cnst:      4.6092                 0.9814                 0.9814
 Red. Mass:       6.5195                 1.3760                 1.3760
 IR Active:          YES                    YES                    YES
 IR Intens:        0.000                  0.000                  0.000
 Raman Active:       NO                     NO                     NO 
               X      Y      Z        X      Y      Z        X      Y      Z
 C          0.277 -0.084  0.000    0.000 -0.000  0.083   -0.000  0.000  0.066
 C         -0.211 -0.197 -0.000   -0.000 -0.000  0.015    0.000  0.000 -0.105
 C         -0.065  0.282  0.000   -0.000  0.000 -0.098   -0.000 -0.000  0.039
 C         -0.211 -0.197 -0.000   -0.000 -0.000  0.015    0.000  0.000 -0.105
 C          0.277 -0.084  0.000    0.000 -0.000  0.083   -0.000  0.000  0.066
 C         -0.065  0.282  0.000   -0.000  0.000 -0.098   -0.000 -0.000  0.039
 H          0.276 -0.084 -0.000   -0.000 -0.000 -0.445   -0.000 -0.000 -0.352
 H         -0.211 -0.197  0.000   -0.000 -0.000 -0.082   -0.000  0.000  0.562
 H         -0.065  0.281 -0.000   -0.000  0.000  0.528   -0.000 -0.000 -0.209
 H         -0.211 -0.197  0.000    0.000 -0.000 -0.082   -0.000  0.000  0.562
 H          0.276 -0.084 -0.000    0.000 -0.000 -0.445   -0.000 -0.000 -0.352
 H         -0.065  0.281 -0.000    0.000  0.000  0.528   -0.000 -0.000 -0.209
 TransDip  -0.000 -0.000  0.000   -0.000 -0.000 -0.000   -0.000 -0.000  0.000

 Mode:                13                     14                     15
 Frequency:      1127.43                1129.62                1129.69
 Force Cnst:      0.9713                 1.3125                 1.3125
 Red. Mass:       1.2969                 1.7457                 1.7456
 IR Active:          NO                     YES                    YES
 IR Intens:        0.000                  3.520                  3.520
 Raman Active:       YES                    NO                     NO 
               X      Y      Z        X      Y      Z        X      Y      Z
 C          0.000  0.000  0.066    0.060  0.068 -0.000   -0.103  0.060  0.000
 C         -0.000  0.000 -0.066   -0.104 -0.008  0.000   -0.026 -0.104 -0.000
 C         -0.000 -0.000 -0.066    0.044 -0.112  0.000    0.077  0.044 -0.000
 C         -0.000  0.000  0.066   -0.104 -0.008 -0.000   -0.026 -0.104  0.000
 C          0.000  0.000 -0.066    0.060  0.068  0.000   -0.103  0.060 -0.000
 C         -0.000 -0.000  0.066    0.044 -0.112 -0.000    0.077  0.044  0.000
 H          0.000  0.000 -0.403    0.189  0.481  0.000   -0.071  0.198 -0.000
 H         -0.000  0.000  0.403   -0.340  0.235 -0.000    0.175 -0.331  0.000
 H         -0.000 -0.000  0.403    0.138 -0.101 -0.000    0.510  0.146  0.000
 H         -0.000  0.000 -0.403   -0.340  0.235  0.000    0.175 -0.331 -0.000
 H          0.000  0.000  0.403    0.189  0.481 -0.000   -0.071  0.198  0.000
 H         -0.000 -0.000 -0.403    0.138 -0.101  0.000    0.510  0.146 -0.000
 TransDip  -0.000  0.000 -0.000   -0.001  0.060 -0.000    0.060  0.001  0.000

 Mode:                16                     17                     18
 Frequency:      1171.26                1281.77                1281.77
 Force Cnst:      1.9886                 1.1163                 1.1164
 Red. Mass:       2.4603                 1.1533                 1.1533
 IR Active:          YES                    NO                     NO 
 IR Intens:        0.000                  0.000                  0.000
 Raman Active:       NO                     YES                    YES
               X      Y      Z        X      Y      Z        X      Y      Z
 C         -0.043 -0.142  0.000    0.017  0.053  0.000    0.010  0.036  0.000
 C         -0.101  0.108 -0.000    0.041 -0.043 -0.000   -0.019  0.022 -0.000
 C          0.145  0.034 -0.000    0.004  0.002 -0.000   -0.065 -0.015  0.000
 C         -0.101  0.108  0.000   -0.041  0.043  0.000    0.019 -0.022 -0.000
 C         -0.043 -0.142 -0.000   -0.017 -0.053 -0.000   -0.010 -0.036 -0.000
 C          0.145  0.034  0.000   -0.004 -0.002  0.000    0.065  0.015  0.000
 H         -0.111 -0.364 -0.000    0.140  0.456  0.000    0.092  0.305  0.000
 H         -0.260  0.278  0.000    0.351 -0.375  0.000   -0.173  0.186  0.000
 H          0.371  0.086  0.000    0.036  0.010  0.000   -0.558 -0.129 -0.000
 H         -0.260  0.278 -0.000   -0.351  0.375 -0.000    0.173 -0.186 -0.000
 H         -0.111 -0.364  0.000   -0.140 -0.456  0.000   -0.092 -0.305  0.000
 H          0.371  0.086 -0.000   -0.036 -0.010 -0.000    0.558  0.129 -0.000
 TransDip   0.000 -0.000 -0.000    0.000  0.000  0.000    0.000 -0.000 -0.000

 Mode:                19                     20                     21
 Frequency:      1336.90                1498.22                1635.07
 Force Cnst:      1.5738                 1.6494                 3.0732
 Red. Mass:       1.4945                 1.2472                 1.9510
 IR Active:          YES                    NO                     YES
 IR Intens:        0.000                  0.000                 11.727
 Raman Active:       NO                     YES                    NO 
               X      Y      Z        X      Y      Z        X      Y      Z
 C          0.025  0.082 -0.000   -0.018 -0.058 -0.000   -0.062 -0.127  0.000
 C          0.059 -0.063  0.000    0.041 -0.044  0.000    0.115 -0.031 -0.000
 C         -0.084 -0.019 -0.000   -0.059 -0.014  0.000   -0.057  0.075 -0.000
 C          0.059 -0.063  0.000   -0.041  0.044 -0.000    0.115 -0.031 -0.000
 C          0.025  0.082 -0.000    0.018  0.058 -0.000   -0.062 -0.127  0.000
 C         -0.084 -0.019  0.000    0.059  0.014 -0.000   -0.057  0.075 -0.000
 H         -0.116 -0.382  0.000    0.118  0.386  0.000    0.125  0.509  0.000
 H         -0.272  0.292 -0.000   -0.276  0.295 -0.000   -0.201  0.332 -0.000
 H          0.389  0.090 -0.000    0.393  0.091  0.000    0.115  0.138 -0.000
 H         -0.272  0.292 -0.000    0.276 -0.295 -0.000   -0.201  0.332  0.000
 H         -0.116 -0.382  0.000   -0.118 -0.386  0.000    0.125  0.509 -0.000
 H          0.389  0.090 -0.000   -0.393 -0.091  0.000    0.115  0.138  0.000
 TransDip   0.000  0.000 -0.000    0.000 -0.000  0.000    0.004  0.110 -0.000

 Mode:                22                     23                     24
 Frequency:      1635.10                1775.02                1775.02
 Force Cnst:      3.0735                 9.2201                 9.2204
 Red. Mass:       1.9512                 4.9668                 4.9670
 IR Active:          YES                    NO                     NO 
 IR Intens:       11.726                  0.000                  0.000
 Raman Active:       NO                     YES                    YES
               X      Y      Z        X      Y      Z        X      Y      Z
 C          0.072 -0.060 -0.000   -0.127  0.078 -0.000    0.108  0.294  0.000
 C         -0.024  0.117  0.000    0.239 -0.173  0.000   -0.013 -0.181 -0.000
 C         -0.130 -0.054  0.000    0.265 -0.028  0.000   -0.158 -0.156 -0.000
 C         -0.024  0.117 -0.000   -0.239  0.173  0.000    0.013  0.181  0.000
 C          0.072 -0.060 -0.000    0.127 -0.078 -0.000   -0.108 -0.294  0.000
 C         -0.130 -0.054  0.000   -0.265  0.028  0.000    0.158  0.156 -0.000
 H          0.144  0.099  0.000   -0.176 -0.001 -0.000   -0.105 -0.414  0.000
 H          0.320 -0.227  0.000   -0.221  0.334  0.000   -0.229  0.016 -0.000
 H          0.514  0.089 -0.000   -0.311 -0.177  0.000    0.282 -0.074 -0.000
 H          0.320 -0.227  0.000    0.221 -0.334  0.000    0.229 -0.016  0.000
 H          0.144  0.099  0.000    0.176  0.001 -0.000    0.105  0.414 -0.000
 H          0.514  0.089 -0.000    0.311  0.177 -0.000   -0.282  0.074  0.000
 TransDip   0.110 -0.004  0.000   -0.000 -0.000  0.000   -0.000  0.000 -0.000

 Mode:                25                     26                     27
 Frequency:      3305.12                3316.97                3316.98
 Force Cnst:      6.9793                 7.0617                 7.0617
 Red. Mass:       1.0844                 1.0894                 1.0894
 IR Active:          YES                    NO                     NO 
 IR Intens:        0.000                  0.000                  0.000
 Raman Active:       NO                     YES                    YES
               X      Y      Z        X      Y      Z        X      Y      Z
 C         -0.033  0.010 -0.000   -0.028  0.011 -0.000    0.039 -0.010  0.000
 C          0.025  0.023  0.000   -0.013 -0.015 -0.000   -0.034 -0.030  0.000
 C          0.008 -0.033  0.000    0.011 -0.048 -0.000   -0.001 -0.006 -0.000
 C          0.025  0.023 -0.000    0.013  0.015  0.000    0.034  0.030 -0.000
 C         -0.033  0.010 -0.000    0.028 -0.011  0.000   -0.039  0.010 -0.000
 C          0.008 -0.033  0.000   -0.011  0.048 -0.000    0.001  0.006  0.000
 H          0.389 -0.119  0.000    0.326 -0.102  0.000   -0.443  0.133 -0.000
 H         -0.297 -0.278  0.000    0.166  0.159 -0.000    0.386  0.359 -0.000
 H         -0.092  0.396  0.000   -0.129  0.557  0.000   -0.011  0.064  0.000
 H         -0.297 -0.278  0.000   -0.166 -0.159 -0.000   -0.386 -0.359  0.000
 H          0.389 -0.119  0.000   -0.326  0.102 -0.000    0.443 -0.133  0.000
 H         -0.092  0.396 -0.000    0.129 -0.557  0.000    0.011 -0.064 -0.000
 TransDip   0.000 -0.000  0.000    0.000 -0.000  0.000   -0.000 -0.000  0.000

 Mode:                28                     29                     30
 Frequency:      3336.16                3336.16                3347.79
 Force Cnst:      7.1904                 7.1904                 7.2653
 Red. Mass:       1.0965                 1.0965                 1.1002
 IR Active:          YES                    YES                    NO 
 IR Intens:       49.286                 49.286                  0.000
 Raman Active:       NO                     NO                     YES
               X      Y      Z        X      Y      Z        X      Y      Z
 C          0.013  0.000 -0.000   -0.048  0.016  0.000    0.036 -0.011 -0.000
 C         -0.029 -0.024  0.000   -0.024 -0.026 -0.000    0.027  0.026  0.000
 C          0.012 -0.048 -0.000    0.000  0.015 -0.000    0.008 -0.036 -0.000
 C         -0.029 -0.024  0.000   -0.024 -0.026  0.000   -0.027 -0.026 -0.000
 C          0.013  0.000  0.000   -0.048  0.016 -0.000   -0.036  0.011 -0.000
 C          0.012 -0.048  0.000    0.000  0.015  0.000   -0.008  0.036  0.000
 H         -0.130  0.034 -0.000    0.534 -0.164  0.000   -0.389  0.119 -0.000
 H          0.307  0.282  0.000    0.287  0.273  0.000   -0.297 -0.278  0.000
 H         -0.126  0.537  0.000    0.031 -0.160 -0.000   -0.092  0.396  0.000
 H          0.307  0.282 -0.000    0.287  0.273  0.000    0.297  0.278  0.000
 H         -0.130  0.034 -0.000    0.534 -0.164  0.000    0.389 -0.119  0.000
 H         -0.126  0.537 -0.000    0.031 -0.160 -0.000    0.092 -0.396 -0.000
 TransDip  -0.013 -0.224 -0.000   -0.224  0.013  0.000    0.000 -0.000  0.000

 STANDARD THERMODYNAMIC QUANTITIES AT   298.15 K  AND     1.00 ATM

   This Molecule has  0 Imaginary Frequencies
   Zero point vibrational energy:       66.876 kcal/mol

   Atom    1 Element C  Has Mass   12.00000
   Atom    2 Element C  Has Mass   12.00000
   Atom    3 Element C  Has Mass   12.00000
   Atom    4 Element C  Has Mass   12.00000
   Atom    5 Element C  Has Mass   12.00000
   Atom    6 Element C  Has Mass   12.00000
   Atom    7 Element H  Has Mass    1.00783
   Atom    8 Element H  Has Mass    1.00783
   Atom    9 Element H  Has Mass    1.00783
   Atom   10 Element H  Has Mass    1.00783
   Atom   11 Element H  Has Mass    1.00783
   Atom   12 Element H  Has Mass    1.00783
   Molecular Mass:    78.046980 amu
   Principal axes and moments of inertia in amu*Bohr^2:
                             1           2           3
    Eigenvalues --      310.90055   310.90057   621.80112
          X               0.99736     0.07263     0.00000
          Y              -0.07263     0.99736     0.00000
          Z              -0.00000    -0.00000     1.00000
   Rotational Symmetry Number is   2
   The Molecule is an Asymmetric Top
   Translational Enthalpy:        0.889 kcal/mol
   Rotational Enthalpy:           0.889 kcal/mol
   Vibrational Enthalpy:         67.681 kcal/mol
   gas constant (RT):             0.592 kcal/mol
   Translational Entropy:        38.979  cal/mol.K
   Rotational Entropy:           24.222  cal/mol.K
   Vibrational Entropy:           3.568  cal/mol.K

   Total Enthalpy:               70.051 kcal/mol
   Total Entropy:                66.769  cal/mol.K
 Total job time:  917.52s(wall), 912.75s(cpu) 
 Thu Oct 12 20:30:14 2023

        *************************************************************
        *                                                           *
        *  Thank you very much for using Q-Chem.  Have a nice day.  *
        *                                                           *
        *************************************************************


