
Running Job 1 of 1 ethylene_frequencies.qcin
qchem ethylene_frequencies.qcin_2080481.0 ./qchem2080481/ 0
/cm/shared/apps/spack/cpu/opt/spack/linux-centos8-zen2/gcc-10.2.0/qchem-6.0.2/exe/qcprog.exe_s ethylene_frequencies.qcin_2080481.0 ./qchem2080481/
                  Welcome to Q-Chem
     A Quantum Leap Into The Future Of Chemistry


 Q-Chem 6.0, Q-Chem, Inc., Pleasanton, CA (2022)

 License issued to: University of California, San Diego (site)

 E. Epifanovsky,  A. T. B. Gilbert,  Xintian Feng,  Joonho Lee,  Yuezhi Mao,  
 N. Mardirossian,  P. Pokhilko,  A. White,  M. Wormit,  M. P. Coons,  
 A. L. Dempwolff,  Zhengting Gan,  D. Hait,  P. R. Horn,  L. D. Jacobson,  
 I. Kaliman,  J. Kussmann,  A. W. Lange,  Ka Un Lao,  D. S. Levine,  Jie Liu,  
 S. C. McKenzie,  A. F. Morrison,  K. Nanda,  F. Plasser,  D. R. Rehn,  
 M. L. Vidal,  Zhi-Qiang You,  Ying Zhu,  B. Alam,  B. Albrecht,  
 A. Aldossary,  E. Alguire,  J. H. Andersen,  V. Athavale,  D. Barton,  
 K. Begam,  A. Behn,  N. Bellonzi,  Y. A. Bernard,  E. J. Berquist,  
 H. Burton,  A. Carreras,  K. Carter-Fenk,  Romit Chakraborty,  
 Chandrima Chakravarty,  Junhan Chen,  A. D. Chien,  K. D. Closser,  
 V. Cofer-Shabica,  L. Cunha,  S. Dasgupta,  Jia Deng,  M. de Wergifosse,  
 M. Diedenhofen,  Hainam Do,  S. Ehlert,  Po-Tung Fang,  S. Fatehi,  
 Qingguo Feng,  T. Friedhoff,  B. Ganoe,  J. Gayvert,  Qinghui Ge,  
 G. Gidofalvi,  M. Goldey,  J. Gomes,  C. Gonzalez-Espinoza,  S. Gulania,  
 A. Gunina,  J. A. Gyamfi,  M. W. D. Hanson-Heine,  P. H. P. Harbach,  
 A. W. Hauser,  M. F. Herbst,  M. Hernandez Vera,  M. Hodecker,  
 Z. C. Holden,  S. Houck,  Xunkun Huang,  Kerwin Hui,  B. C. Huynh,  
 K. Ikeda,  M. Ivanov,  Hyunjun Ji,  Zuxin Jin,  Hanjie Jiang,  B. Kaduk,  
 S. Kaehler,  R. Kang,  K. Khistyaev,  Jaehoon Kim,  Yongbin Kim,  
 P. Klunzinger,  Z. Koczor-Benda,  Joong Hoon Koh,  D. Kosenkov,  
 Saikiran Kotaru,  L. Koulias,  T. Kowalczyk,  C. M. Krauter,  K. Kue,  
 A. Kunitsa,  T. Kus,  A. Landau,  K. V. Lawler,  D. Lefrancois,  S. Lehtola,  
 Rain Li,  Shaozhi Li,  Yi-Pei Li,  Jiashu Liang,  M. Liebenthal,  
 Hung-Hsuan Lin,  You-Sheng Lin,  Fenglai Liu,  Kuan-Yu Liu,  
 M. Loipersberger,  A. Luenser,  C. Malbon,  A. Manjanath,  P. Manohar,  
 E. Mansoor,  S. F. Manzer,  Shan-Ping Mao,  A. V. Marenich,  T. Markovich,  
 S. Mason,  F. Matz,  S. A. Maurer,  P. F. McLaughlin,  M. F. S. J. Menger,  
 J.-M. Mewes,  S. A. Mewes,  P. Morgante,  Mohammad Mostafanejad,  
 J. W. Mullinax,  K. J. Oosterbaan,  G. Paran,  V. Parravicini,  
 Alexander C. Paul,  Suranjan K. Paul,  F. Pavosevic,  Zheng Pei,  S. Prager,  
 E. I. Proynov,  E. Ramos,  B. Rana,  A. E. Rask,  A. Rettig,  R. M. Richard,  
 F. Rob,  E. Rossomme,  T. Scheele,  M. Scheurer,  M. Schneider,  
 P. E. Schneider,  N. Sergueev,  S. M. Sharada,  Hengyuan Shen,  
 W. Skomorowski,  D. W. Small,  C. J. Stein,  Yingli Su,  Yu-Chuan Su,  
 E. J. Sundstrom,  Zhen Tao,  J. Thirman,  Hung-Yi Tsai,  T. Tsuchimochi,  
 N. M. Tubman,  C. Utku,  S. P. Veccham,  O. Vydrov,  J. Wenzel,  
 Jonathan Wong,  J. Witte,  A. Yamada,  Chou-Hsun Yang,  Kun Yao,  
 S. Yeganeh,  S. R. Yost,  A. Zech,  F. Zeller,  Igor Ying Zhang,  
 Xing Zhang,  Yu Zhang,  D. Zuev,  A. Aspuru-Guzik,  A. T. Bell,  
 N. A. Besley,  K. B. Bravaya,  B. R. Brooks,  D. Casanova,  Jeng-Da Chai,  
 Hsing-Ta Chen,  S. Coriani,  C. J. Cramer,  A. E. DePrince, III,  
 R. A. DiStasio Jr.,  A. Dreuw,  B. D. Dunietz,  T. R. Furlani,  
 W. A. Goddard III,  S. Grimme,  S. Hammes-Schiffer,  T. Head-Gordon,  
 W. J. Hehre,  Chao-Ping Hsu,  T.-C. Jagau,  Yousung Jung,  A. Klamt,  
 Jing Kong,  D. S. Lambrecht,  Xiangyuan Li,  WanZhen Liang,  N. J. Mayhall,  
 C. W. McCurdy,  J. B. Neaton,  T. Neudecker,  C. Ochsenfeld,  
 J. A. Parkhill,  R. Peverati,  V. A. Rassolov,  Haisheng Ren,  Yihan Shao,  
 L. V. Slipchenko,  R. P. Steele,  J. E. Subotnik,  A. J. W. Thom,  
 A. Tkatchenko,  D. G. Truhlar,  T. Van Voorhis,  Fan Wang,  
 T. A. Wesolowski,  K. B. Whaley,  H. L. Woodcock III,  P. M. Zimmerman,  
 S. Faraji,  P. M. W. Gill,  M. Head-Gordon,  J. M. Herbert,  A. I. Krylov

 Contributors to earlier versions of Q-Chem not listed above: 
 R. D. Adamson,  B. Austin,  R. Baer,  J. Baker,  G. J. O. Beran,  
 K. Brandhorst,  S. T. Brown,  E. F. C. Byrd,  Arup K. Chakraborty,  
 G. K. L. Chan,  Chun-Min Chang,  Yunqing Chen,  C.-L. Cheng,  
 Siu Hung Chien,  D. M. Chipman,  D. L. Crittenden,  H. Dachsel,  
 R. J. Doerksen,  A. D. Dutoi,  R. G. Edgar,  J. Fosso-Tande,  
 L. Fusti-Molnar,  D. Ghosh,  A. Ghysels,  A. Golubeva-Zadorozhnaya,  
 J. Gonthier,  M. S. Gordon,  S. R. Gwaltney,  G. Hawkins,  J. E. Herr,  
 A. Heyden,  S. Hirata,  E. G. Hohenstein,  G. Kedziora,  F. J. Keil,  
 C. Kelley,  Jihan Kim,  R. A. King,  R. Z. Khaliullin,  P. P. Korambath,  
 W. Kurlancheek,  A. Laurent,  A. M. Lee,  M. S. Lee,  S. V. Levchenko,  
 Ching Yeh Lin,  D. Liotard,  E. Livshits,  R. C. Lochan,  I. Lotan,  
 L. A. Martinez-Martinez,  P. E. Maslen,  N. Nair,  D. P. O'Neill,  
 D. Neuhauser,  E. Neuscamman,  C. M. Oana,  R. Olivares-Amaya,  R. Olson,  
 T. M. Perrine,  B. Peters,  P. A. Pieniazek,  A. Prociuk,  Y. M. Rhee,  
 J. Ritchie,  M. A. Rohrdanz,  E. Rosta,  N. J. Russ,  H. F. Schaefer III,  
 M. W. Schmidt,  N. E. Schultz,  S. Sharma,  N. Shenvi,  C. D. Sherrill,  
 A. C. Simmonett,  A. Sodt,  T. Stein,  D. Stuck,  K. S. Thanthiriwatte,  
 V. Vanovschi,  L. Vogt,  Tao Wang,  A. Warshel,  M. A. Watson,  
 C. F. Williams,  Q. Wu,  X. Xu,  Jun Yang,  W. Zhang,  Yan Zhao

   Please cite Q-Chem as follows:
  "Software for the frontiers of quantum chemistry:
   An overview of developments in the Q-Chem 5 package"
   J. Chem. Phys. 155, 084801 (2021)
   https://doi.org/10.1063/5.0055522 (open access)

 Q-Chem 6.0.2 for Intel X86 EM64T Linux

 Parts of Q-Chem use Armadillo 9.900.5 (Nocturnal Misbehaviour).
 http://arma.sourceforge.net/

 Q-Chem begins on Thu Oct 12 19:23:25 2023  

 Host: 
0

     Scratch files written to ./qchem2080481//
 Dec722 |scratch|qcdevops|jenkins|workspace|build_RNUM -1
 Processing $rem in /cm/shared/apps/spack/cpu/opt/spack/linux-centos8-zen2/gcc-10.2.0/qchem-6.0.2/config/preferences:
 Processing $rem in /home/whe1/.qchemrc:

 Checking the input file for inconsistencies... 	...done.

--------------------------------------------------------------
User input:
--------------------------------------------------------------
$rem
JOBTYPE Freq
EXCHANGE HF
BASIS cc-pVTZ
GUI=2
$end
$molecule
0 1
H 1.2208067629 -0.9144670817 0.0000007090
C 0.6569338598 0.0000259242 0.0000024916
H 1.2208423069 0.9144970870 0.0000005495
C -0.6569852352 0.0000519602 0.0000055937
H -1.2208949556 -0.9144183896 0.0000075157
H -1.2208575844 0.9145454184 0.0000076725
$end
--------------------------------------------------------------
 Atom   6: ( -1.2208499634,  0.9144822183,  0.0000004098)
         ->( -1.2208506072,  0.9144819241, -0.0000001481)
 Atom   5: ( -1.2208511118, -0.9144815901,  0.0000002516)
         ->( -1.2208506072, -0.9144819241,  0.0000001481)
 Atom   3: (  1.2208499284,  0.9144822449, -0.0000003063)
         ->(  1.2208506072,  0.9144819241,  0.0000001481)
 Atom   1: (  1.2208506072, -0.9144819241, -0.0000001481)
         ->(  1.2208506072, -0.9144819241,  0.0000000000)
 Atom   4: ( -0.6569595027, -0.0000000722, -0.0000001900)
         ->( -0.6569595926,  0.0000000860,  0.0000001555)
 Atom   2: (  0.6569595926, -0.0000000860,  0.0000001555)
         ->(  0.6569595926,  0.0000000000,  0.0000000000)
 ----------------------------------------------------------------
             Standard Nuclear Orientation (Angstroms)
    I     Atom           X                Y                Z
 ----------------------------------------------------------------
    1      H       1.2208506072    -0.9144819241     0.0000000000
    2      C       0.6569595926     0.0000000000     0.0000000000
    3      H       1.2208506072     0.9144819241     0.0000001481
    4      C      -0.6569595926     0.0000000860     0.0000001555
    5      H      -1.2208506072    -0.9144819241     0.0000001481
    6      H      -1.2208506072     0.9144819241    -0.0000001481
 ----------------------------------------------------------------
 Molecular Point Group                 D2h   NOp =  8
 Largest Abelian Subgroup              D2h   NOp =  8
 Nuclear Repulsion Energy =          33.75976300 hartrees
 There are        8 alpha and        8 beta electrons
 Requested basis set is cc-pVTZ
 There are 44 shells and 116 basis functions

 Total QAlloc Memory Limit   2048 MB
 Mega-Array Size       188 MB
 MEM_STATIC part       192 MB


                       Distance Matrix (Angstroms)
             H (  1)   C (  2)   H (  3)   C (  4)   H (  5)
   C (  2)  1.074360
   H (  3)  1.828964  1.074360
   C (  4)  2.088648  1.313919  2.088647
   H (  5)  2.441701  2.088647  3.050740  1.074360
   H (  6)  3.050740  2.088647  2.441701  1.074360  1.828964
 
 A cutoff of  1.0D-12 yielded    990 shell pairs
 There are      6950 function pairs (      8767 Cartesian)
 Smallest overlap matrix eigenvalue = 6.88E-04
 Guess from superposition of atomic densities
 Warning:  Energy on first SCF cycle will be non-variational
 SAD guess density has 16.000000 electrons

 -----------------------------------------------------------------------
  General SCF calculation program by
  Eric Jon Sundstrom, Paul Horn, Yuezhi Mao, Dmitri Zuev, Alec White,
  David Stuck, Shaama M.S., Shane Yost, Joonho Lee, David Small,
  Daniel Levine, Susi Lehtola, Hugh Burton, Evgeny Epifanovsky,
  Bang C. Huynh
 -----------------------------------------------------------------------
 Hartree-Fock
 A restricted SCF calculation will be
 performed using DIIS
 SCF converges when DIIS error is below 1.0e-08
 ---------------------------------------
  Cycle       Energy         DIIS error
 ---------------------------------------
    1     -78.5034858482      4.37e-02  
    2     -78.0406449712      3.20e-03  
    3     -78.0622315953      8.74e-04  
    4     -78.0639907427      3.06e-04  
    5     -78.0641908804      3.11e-05  
    6     -78.0641942825      5.58e-06  
    7     -78.0641944075      1.38e-06  
    8     -78.0641944136      1.53e-07  
    9     -78.0641944150      1.90e-08  
   10     -78.0641944152      2.18e-09  Convergence criterion met
 ---------------------------------------
 SCF time:   CPU 1.97s  wall 2.00s 
 SCF   energy in the final basis set =      -78.0641944152
 Total energy in the final basis set =      -78.0641944152
 
 --------------------------------------------------------------
             Orbital Energies (a.u.) and Symmetries
 --------------------------------------------------------------
 
 Alpha MOs, Restricted
 -- Occupied --                  
-11.224 -11.222  -1.039  -0.793  -0.646  -0.591  -0.505  -0.381
  1 Ag    1 B3u   2 Ag    2 B3u   1 B2u   3 Ag    1 B1g   1 B1u                
 -- Virtual --                   
  0.156   0.160   0.188   0.191   0.242   0.370   0.373   0.444
  1 B2g   4 Ag    3 B3u   2 B2u   2 B1g   4 B3u   5 Ag    3 B2u                
  0.445   0.486   0.567   0.594   0.595   0.639   0.642   0.679
  2 B1u   6 Ag    2 B2g   5 B3u   4 B2u   7 Ag    6 B3u   1 B3g                
  0.696   0.805   0.834   0.859   0.881   0.991   1.089   1.103
  3 B1g   7 B3u   1 Au    4 B1g   3 B1u   8 Ag    5 B1g   5 B2u                
  1.188   1.211   1.224   1.235   1.309   1.327   1.380   1.475
  3 B2g   9 Ag    2 B3g   4 B1u   8 B3u   6 B2u   4 B2g   7 B2u                
  1.490   1.555   1.594   1.600   1.621   1.823   1.843   1.896
  9 B3u  10 Ag    6 B1g  10 B3u   2 Au   11 B3u  11 Ag    7 B1g                
  2.304   2.366   2.561   2.561   2.618   2.654   2.719   2.748
 12 Ag    5 B1u   5 B2g  13 Ag    8 B2u  12 B3u   9 B2u   6 B1u                
  2.896   2.953   3.082   3.100   3.101   3.101   3.125   3.147
  8 B1g   3 B3g   9 B1g   7 B1u  10 B2u   4 B3g  14 Ag    3 Au                 
  3.163   3.210   3.237   3.363   3.409   3.418   3.426   3.485
 15 Ag    6 B2g  13 B3u  11 B2u  10 B1g   7 B2g  14 B3u  15 B3u                
  3.503   3.522   3.606   3.620   3.747   3.806   3.932   3.948
  8 B1u   4 Au   16 Ag    5 B3g  12 B2u  11 B1g   5 Au   16 B3u                
  3.962   4.028   4.038   4.052   4.135   4.199   4.238   4.239
 17 Ag    8 B2g  13 B2u  12 B1g   9 B1u   6 B3g  18 Ag   13 B1g                
  4.295   4.354   4.376   4.425   4.468   4.585   4.720   4.879
 17 B3u  10 B1u   9 B2g  18 B3u  14 B2u   6 Au   19 Ag   19 B3u                
  4.895   4.929   4.985   5.046   5.133   5.256   5.259   5.419
 10 B2g  11 B1u  14 B1g  20 Ag   15 B2u   7 B3g  21 Ag   15 B1g                
  5.436   5.469   5.558   5.564   5.685   5.802   6.267   6.400
 11 B2g  20 B3u   7 Au   16 B2u  22 Ag   21 B3u  16 B1g  17 B2u                
  6.467   6.893  11.959  15.105
 22 B3u  17 B1g  23 Ag   23 B3u                                                
 
 Beta MOs, Restricted
 -- Occupied --                  
-11.224 -11.222  -1.039  -0.793  -0.646  -0.591  -0.505  -0.381
  1 Ag    1 B3u   2 Ag    2 B3u   1 B2u   3 Ag    1 B1g   1 B1u                
 -- Virtual --                   
  0.156   0.160   0.188   0.191   0.242   0.370   0.373   0.444
  1 B2g   4 Ag    3 B3u   2 B2u   2 B1g   4 B3u   5 Ag    3 B2u                
  0.445   0.486   0.567   0.594   0.595   0.639   0.642   0.679
  2 B1u   6 Ag    2 B2g   5 B3u   4 B2u   7 Ag    6 B3u   1 B3g                
  0.696   0.805   0.834   0.859   0.881   0.991   1.089   1.103
  3 B1g   7 B3u   1 Au    4 B1g   3 B1u   8 Ag    5 B1g   5 B2u                
  1.188   1.211   1.224   1.235   1.309   1.327   1.380   1.475
  3 B2g   9 Ag    2 B3g   4 B1u   8 B3u   6 B2u   4 B2g   7 B2u                
  1.490   1.555   1.594   1.600   1.621   1.823   1.843   1.896
  9 B3u  10 Ag    6 B1g  10 B3u   2 Au   11 B3u  11 Ag    7 B1g                
  2.304   2.366   2.561   2.561   2.618   2.654   2.719   2.748
 12 Ag    5 B1u   5 B2g  13 Ag    8 B2u  12 B3u   9 B2u   6 B1u                
  2.896   2.953   3.082   3.100   3.101   3.101   3.125   3.147
  8 B1g   3 B3g   9 B1g   7 B1u  10 B2u   4 B3g  14 Ag    3 Au                 
  3.163   3.210   3.237   3.363   3.409   3.418   3.426   3.485
 15 Ag    6 B2g  13 B3u  11 B2u  10 B1g   7 B2g  14 B3u  15 B3u                
  3.503   3.522   3.606   3.620   3.747   3.806   3.932   3.948
  8 B1u   4 Au   16 Ag    5 B3g  12 B2u  11 B1g   5 Au   16 B3u                
  3.962   4.028   4.038   4.052   4.135   4.199   4.238   4.239
 17 Ag    8 B2g  13 B2u  12 B1g   9 B1u   6 B3g  18 Ag   13 B1g                
  4.295   4.354   4.376   4.425   4.468   4.585   4.720   4.879
 17 B3u  10 B1u   9 B2g  18 B3u  14 B2u   6 Au   19 Ag   19 B3u                
  4.895   4.929   4.985   5.046   5.133   5.256   5.259   5.419
 10 B2g  11 B1u  14 B1g  20 Ag   15 B2u   7 B3g  21 Ag   15 B1g                
  5.436   5.469   5.558   5.564   5.685   5.802   6.267   6.400
 11 B2g  20 B3u   7 Au   16 B2u  22 Ag   21 B3u  16 B1g  17 B2u                
  6.467   6.893  11.959  15.105
 22 B3u  17 B1g  23 Ag   23 B3u                                                
 --------------------------------------------------------------
 
          Ground-State Mulliken Net Atomic Charges

     Atom                 Charge (a.u.)
  ----------------------------------------
      1 H                     0.139405
      2 C                    -0.278803
      3 H                     0.139398
      4 C                    -0.278803
      5 H                     0.139387
      6 H                     0.139416
  ----------------------------------------
  Sum of atomic charges =     0.000000

 -----------------------------------------------------------------
                    Cartesian Multipole Moments
 -----------------------------------------------------------------
    Charge (ESU x 10^10)
                 0.0000
    Dipole Moment (Debye)
         X       0.0000      Y      -0.0000      Z       0.0000
       Tot       0.0000
    Quadrupole Moments (Debye-Ang)
        XX     -12.1268     XY       0.0000     YY     -12.3471
        XZ      -0.0000     YZ       0.0000     ZZ     -15.7517
    Octopole Moments (Debye-Ang^2)
       XXX       0.0000    XXY      -0.0000    XYY       0.0000
       YYY      -0.0000    XXZ       0.0000    XYZ      -0.0000
       YYZ      -0.0000    XZZ       0.0000    YZZ      -0.0000
       ZZZ      -0.0000
    Hexadecapole Moments (Debye-Ang^3)
      XXXX     -66.3396   XXXY       0.0000   XXYY     -12.8826
      XYYY       0.0000   YYYY     -26.3067   XXXZ       0.0000
      XXYZ       0.0000   XYYZ      -0.0000   YYYZ       0.0000
      XXZZ     -15.0735   XYZZ       0.0000   YYZZ      -8.2881
      XZZZ      -0.0000   YZZZ       0.0000   ZZZZ     -18.9677
 -----------------------------------------------------------------
 Calculating MO derivatives via CPSCF
    1     0    21    0.0485824  
    2     0    21    0.0128316  
    3     0    21    0.0044198  
    4     0    21    0.0006954  
    5     0    21    0.0000601  
    6    19     2    0.0000044  
    7    21     0    0.0000004  Converged
 Polarizability Matrix (a.u.)
            1           2           3
    1 -34.4682785   0.0000044  -0.0000178
    2   0.0000044 -21.5355465   0.0000019
    3  -0.0000178   0.0000019 -15.5006405
 Calculating analytic Hessian of the SCF energy
 
 Direct stationary perturbation theory relativistic correction:
 
 rels  =       0.019399384293
 relv  =      -0.072800174080
 rel2e =       0.021441045460
 E_rel =      -0.031959744327
 
 **********************************************************************
 **                                                                  **
 **                       VIBRATIONAL ANALYSIS                       **
 **                       --------------------                       **
 **                                                                  **
 **        VIBRATIONAL FREQUENCIES (CM**-1) AND NORMAL MODES         **
 **     FORCE CONSTANTS (mDYN/ANGSTROM) AND REDUCED MASSES (AMU)     **
 **                  INFRARED INTENSITIES (KM/MOL)                   **
 **                                                                  **
 **********************************************************************
 

 Mode:                 1                      2                      3
 Frequency:       890.51                1085.16                1104.97
 Force Cnst:      0.4871                 0.8053                 1.0923
 Red. Mass:       1.0424                 1.1607                 1.5185
 IR Active:          YES                    YES                    NO 
 IR Intens:        0.011                111.292                  0.000
 Raman Active:       NO                     NO                     YES
               X      Y      Z        X      Y      Z        X      Y      Z
 H          0.440  0.236  0.000    0.000  0.000  0.497    0.000  0.000  0.488
 C         -0.000 -0.040  0.000   -0.000  0.000 -0.083    0.000 -0.000 -0.152
 H         -0.440  0.236 -0.000    0.000 -0.000  0.497   -0.000 -0.000  0.488
 C         -0.000 -0.040 -0.000   -0.000 -0.000 -0.083   -0.000 -0.000  0.152
 H         -0.440  0.236 -0.000    0.000 -0.000  0.497   -0.000  0.000 -0.488
 H          0.440  0.236  0.000    0.000  0.000  0.497    0.000 -0.000 -0.488
 TransDip   0.000  0.003  0.000   -0.000 -0.000  0.338    0.000  0.000 -0.000

 Mode:                 4                      5                      6
 Frequency:      1142.83                1343.24                1474.82
 Force Cnst:      0.7755                 1.6204                 1.6105
 Red. Mass:       1.0078                 1.5243                 1.2567
 IR Active:          NO                     NO                     NO 
 IR Intens:        0.000                  0.000                  0.000
 Raman Active:       NO                     YES                    YES
               X      Y      Z        X      Y      Z        X      Y      Z
 H          0.000  0.000 -0.500    0.467  0.141 -0.000   -0.456 -0.190  0.000
 C         -0.000 -0.000  0.000    0.000 -0.153  0.000   -0.106 -0.000 -0.000
 H         -0.000  0.000  0.500   -0.467  0.141  0.000   -0.456  0.190  0.000
 C          0.000 -0.000 -0.000   -0.000  0.153 -0.000    0.106  0.000  0.000
 H         -0.000  0.000  0.500    0.467 -0.141 -0.000    0.456 -0.190 -0.000
 H          0.000  0.000 -0.500   -0.467 -0.141  0.000    0.456  0.190 -0.000
 TransDip   0.000  0.000  0.000   -0.000 -0.000  0.000    0.000  0.000  0.000

 Mode:                 7                      8                      9
 Frequency:      1588.71                1819.88                3267.50
 Force Cnst:      1.6539                 5.6806                 6.5898
 Red. Mass:       1.1121                 2.9111                 1.0476
 IR Active:          YES                    NO                     YES
 IR Intens:       11.929                  0.000                 20.658
 Raman Active:       NO                     YES                    NO 
               X      Y      Z        X      Y      Z        X      Y      Z
 H          0.410  0.282 -0.000   -0.250 -0.380 -0.000    0.253 -0.430 -0.000
 C         -0.069 -0.000  0.000    0.294 -0.000 -0.000   -0.043  0.000 -0.000
 H          0.410 -0.282 -0.000   -0.250  0.380  0.000    0.253  0.430  0.000
 C         -0.069  0.000  0.000   -0.294  0.000  0.000   -0.043 -0.000 -0.000
 H          0.410 -0.282 -0.000    0.250 -0.380  0.000    0.253  0.430 -0.000
 H          0.410  0.282 -0.000    0.250  0.380 -0.000    0.253 -0.430  0.000
 TransDip   0.111 -0.000  0.000    0.000  0.000  0.000   -0.146 -0.000  0.000

 Mode:                10                     11                     12
 Frequency:      3289.73                3339.52                3368.82
 Force Cnst:      6.8671                 7.3293                 7.4757
 Red. Mass:       1.0770                 1.1154                 1.1180
 IR Active:          NO                     NO                     YES
 IR Intens:        0.000                  0.000                 30.444
 Raman Active:       YES                    YES                    NO 
               X      Y      Z        X      Y      Z        X      Y      Z
 H         -0.256  0.427 -0.000    0.264 -0.422  0.000   -0.264  0.421  0.000
 C          0.056  0.000  0.000   -0.000  0.070  0.000   -0.000 -0.071 -0.000
 H         -0.256 -0.427 -0.000   -0.264 -0.422 -0.000    0.264  0.421  0.000
 C         -0.056 -0.000 -0.000    0.000 -0.070  0.000    0.000 -0.071  0.000
 H          0.256  0.427  0.000    0.264  0.422  0.000    0.264  0.421 -0.000
 H          0.256 -0.427  0.000   -0.264  0.422 -0.000   -0.264  0.421 -0.000
 TransDip   0.000 -0.000  0.000    0.000  0.000 -0.000    0.000 -0.177 -0.000

 STANDARD THERMODYNAMIC QUANTITIES AT   298.15 K  AND     1.00 ATM

   This Molecule has  0 Imaginary Frequencies
   Zero point vibrational energy:       33.903 kcal/mol

   Atom    1 Element H  Has Mass    1.00783
   Atom    2 Element C  Has Mass   12.00000
   Atom    3 Element H  Has Mass    1.00783
   Atom    4 Element C  Has Mass   12.00000
   Atom    5 Element H  Has Mass    1.00783
   Atom    6 Element H  Has Mass    1.00783
   Molecular Mass:    28.031320 amu
   Principal axes and moments of inertia in amu*Bohr^2:
                             1           2           3
    Eigenvalues --       12.03913    58.44722    70.48635
          X               1.00000     0.00000     0.00000
          Y              -0.00000     1.00000     0.00000
          Z              -0.00000    -0.00000     1.00000
   Rotational Symmetry Number is   4
   The Molecule is an Asymmetric Top
   Translational Enthalpy:        0.889 kcal/mol
   Rotational Enthalpy:           0.889 kcal/mol
   Vibrational Enthalpy:         33.996 kcal/mol
   gas constant (RT):             0.592 kcal/mol
   Translational Entropy:        35.927  cal/mol.K
   Rotational Entropy:           15.790  cal/mol.K
   Vibrational Entropy:           0.372  cal/mol.K

   Total Enthalpy:               36.366 kcal/mol
   Total Entropy:                52.089  cal/mol.K
 Total job time:  32.27s(wall), 30.42s(cpu) 
 Thu Oct 12 19:23:57 2023

        *************************************************************
        *                                                           *
        *  Thank you very much for using Q-Chem.  Have a nice day.  *
        *                                                           *
        *************************************************************


