10
	Energy:      20.7357004
O          2.46962       -0.28932       -0.70012
C          2.77210        1.06362       -0.36097
C          3.96666        1.10583        0.58647
O          3.55386        0.74379        1.90385
H          1.56940       -0.29338       -1.06655
H          1.88792        1.50788        0.10724
H          3.00250        1.59289       -1.28994
H          4.37898        2.11760        0.63642
H          4.74425        0.40602        0.26403
H          4.35922        0.52041        2.40002
